 Entering Gaussian System, Link 0=/shared/apps/gaussian/G09_LINUX_LINDA/g09/g09
 Input=/scratch/bhoorasingh.p/QMscratch/Species/C/m062x/C.gjf
 Output=/scratch/bhoorasingh.p/QMscratch/Species/C/m062x/C.log
 Initial command:
 /shared/apps/gaussian/G09_LINUX_LINDA/g09/l1.exe /scratch/bhoorasingh.p/Gau-12348.inp -scrdir=/scratch/bhoorasingh.p/
 Entering Link 1 = /shared/apps/gaussian/G09_LINUX_LINDA/g09/l1.exe PID=     12349.
  
 Copyright (c) 1988,1990,1992,1993,1995,1998,2003,2009,2010,
            Gaussian, Inc.  All Rights Reserved.
  
 This is part of the Gaussian(R) 09 program.  It is based on
 the Gaussian(R) 03 system (copyright 2003, Gaussian, Inc.),
 the Gaussian(R) 98 system (copyright 1998, Gaussian, Inc.),
 the Gaussian(R) 94 system (copyright 1995, Gaussian, Inc.),
 the Gaussian 92(TM) system (copyright 1992, Gaussian, Inc.),
 the Gaussian 90(TM) system (copyright 1990, Gaussian, Inc.),
 the Gaussian 88(TM) system (copyright 1988, Gaussian, Inc.),
 the Gaussian 86(TM) system (copyright 1986, Carnegie Mellon
 University), and the Gaussian 82(TM) system (copyright 1983,
 Carnegie Mellon University). Gaussian is a federally registered
 trademark of Gaussian, Inc.
  
 This software contains proprietary and confidential information,
 including trade secrets, belonging to Gaussian, Inc.
  
 This software is provided under written license and may be
 used, copied, transmitted, or stored only in accord with that
 written license.
  
 The following legend is applicable only to US Government
 contracts under FAR:
  
                    RESTRICTED RIGHTS LEGEND
  
 Use, reproduction and disclosure by the US Government is
 subject to restrictions as set forth in subparagraphs (a)
 and (c) of the Commercial Computer Software - Restricted
 Rights clause in FAR 52.227-19.
  
 Gaussian, Inc.
 340 Quinnipiac St., Bldg. 40, Wallingford CT 06492
  
  
 ---------------------------------------------------------------
 Warning -- This program may not be used in any manner that
 competes with the business of Gaussian, Inc. or will provide
 assistance to any competitor of Gaussian, Inc.  The licensee
 of this program is prohibited from giving any competitor of
 Gaussian, Inc. access to this program.  By using this program,
 the user acknowledges that Gaussian, Inc. is engaged in the
 business of creating and licensing software in the field of
 computational chemistry and represents and warrants to the
 licensee that it is not a competitor of Gaussian, Inc. and that
 it will not use this program in any manner prohibited above.
 ---------------------------------------------------------------
  

 Cite this work as:
 Gaussian 09, Revision B.01,
 M. J. Frisch, G. W. Trucks, H. B. Schlegel, G. E. Scuseria, 
 M. A. Robb, J. R. Cheeseman, G. Scalmani, V. Barone, B. Mennucci, 
 G. A. Petersson, H. Nakatsuji, M. Caricato, X. Li, H. P. Hratchian, 
 A. F. Izmaylov, J. Bloino, G. Zheng, J. L. Sonnenberg, M. Hada, 
 M. Ehara, K. Toyota, R. Fukuda, J. Hasegawa, M. Ishida, T. Nakajima, 
 Y. Honda, O. Kitao, H. Nakai, T. Vreven, J. A. Montgomery, Jr., 
 J. E. Peralta, F. Ogliaro, M. Bearpark, J. J. Heyd, E. Brothers, 
 K. N. Kudin, V. N. Staroverov, T. Keith, R. Kobayashi, J. Normand, 
 K. Raghavachari, A. Rendell, J. C. Burant, S. S. Iyengar, J. Tomasi, 
 M. Cossi, N. Rega, J. M. Millam, M. Klene, J. E. Knox, J. B. Cross, 
 V. Bakken, C. Adamo, J. Jaramillo, R. Gomperts, R. E. Stratmann, 
 O. Yazyev, A. J. Austin, R. Cammi, C. Pomelli, J. W. Ochterski, 
 R. L. Martin, K. Morokuma, V. G. Zakrzewski, G. A. Voth, 
 P. Salvador, J. J. Dannenberg, S. Dapprich, A. D. Daniels, 
 O. Farkas, J. B. Foresman, J. V. Ortiz, J. Cioslowski, 
 and D. J. Fox, Gaussian, Inc., Wallingford CT, 2010.
 
 ******************************************
 Gaussian 09:  EM64L-G09RevB.01 12-Aug-2010
                30-Apr-2015 
 ******************************************
 %nprocshared=20
 Will use up to   20 processors via shared memory.
 %mem=5GB
 ----------------------------------------------------------------------
 # m062x/6-311+g(2df,2p) opt=(verytight,calcfc,maxcyc=200) freq IOP(2/1
 6=3) nosymm
 ----------------------------------------------------------------------
 1/6=200,7=1,10=4,14=-1,18=20,19=15,26=3,38=1/1,3;
 2/9=110,12=2,15=1,16=3,17=6,18=5,40=1/2;
 3/5=4,6=6,7=214,11=2,16=1,25=1,30=1,71=2,74=-55/1,2,3;
 4//1;
 5/5=2,38=5/2;
 8/6=4,10=90,11=11/1;
 11/6=1,8=1,9=11,15=111,16=1,31=1/1,2,10;
 10/6=1,7=6,13=1,31=1/2;
 6/7=2,8=2,9=2,10=2,28=1/1;
 7/10=1,18=20,25=1,30=1/1,2,3,16;
 1/6=200,7=1,10=4,14=-1,18=20,19=15/3(2);
 2/9=110,15=1,16=3/2;
 99//99;
 2/9=110,15=1,16=3/2;
 3/5=4,6=6,7=214,11=2,16=1,25=1,30=1,71=1,74=-55/1,2,3;
 4/5=5,16=3/1;
 5/5=2,38=5/2;
 7/30=1/1,2,3,16;
 1/6=200,7=1,14=-1,18=20,19=15/3(-5);
 2/9=110,15=1,16=3/2;
 6/7=2,8=2,9=2,10=2,19=2,28=1/1;
 99/9=1/99;
 -----------------------
 InChI=1S/CH4/h1H4/mult1
 -----------------------
 Symbolic Z-matrix:
 Charge =  0 Multiplicity = 1
 C                     0.        0.        0. 
 H                     0.9249   -0.6084    0.0723 
 H                     0.2209    0.9467   -0.5345 
 H                    -0.3725    0.2292    1.0196 
 H                    -0.7733   -0.5675   -0.5574 
 

 GradGradGradGradGradGradGradGradGradGradGradGradGradGradGradGradGradGrad
 Berny optimization.
 Initialization pass.
                           ----------------------------
                           !    Initial Parameters    !
                           ! (Angstroms and Degrees)  !
 --------------------------                            --------------------------
 ! Name  Definition              Value          Derivative Info.                !
 --------------------------------------------------------------------------------
 ! R1    R(1,2)                  1.1094         calculate D2E/DX2 analytically  !
 ! R2    R(1,3)                  1.1094         calculate D2E/DX2 analytically  !
 ! R3    R(1,4)                  1.1094         calculate D2E/DX2 analytically  !
 ! R4    R(1,5)                  1.1094         calculate D2E/DX2 analytically  !
 ! A1    A(2,1,3)              109.4736         calculate D2E/DX2 analytically  !
 ! A2    A(2,1,4)              109.4698         calculate D2E/DX2 analytically  !
 ! A3    A(2,1,5)              109.4711         calculate D2E/DX2 analytically  !
 ! A4    A(3,1,4)              109.4718         calculate D2E/DX2 analytically  !
 ! A5    A(3,1,5)              109.4662         calculate D2E/DX2 analytically  !
 ! A6    A(4,1,5)              109.4748         calculate D2E/DX2 analytically  !
 ! D1    D(2,1,4,3)            120.0024         calculate D2E/DX2 analytically  !
 ! D2    D(2,1,5,3)           -119.9998         calculate D2E/DX2 analytically  !
 ! D3    D(2,1,5,4)            120.0004         calculate D2E/DX2 analytically  !
 ! D4    D(3,1,5,4)           -119.9998         calculate D2E/DX2 analytically  !
 --------------------------------------------------------------------------------
 Trust Radius=3.00D-01 FncErr=1.00D-07 GrdErr=1.00D-06
 Number of steps in this run=    100 maximum allowed number of steps=    100.
 GradGradGradGradGradGradGradGradGradGradGradGradGradGradGradGradGradGrad

                          Input orientation:                          
 ---------------------------------------------------------------------
 Center     Atomic      Atomic             Coordinates (Angstroms)
 Number     Number       Type             X           Y           Z
 ---------------------------------------------------------------------
      1          6           0        0.000000    0.000000    0.000000
      2          1           0        0.924900   -0.608400    0.072300
      3          1           0        0.220900    0.946700   -0.534500
      4          1           0       -0.372500    0.229200    1.019600
      5          1           0       -0.773300   -0.567500   -0.557400
 ---------------------------------------------------------------------
                    Distance matrix (angstroms):
                    1          2          3          4          5
     1  C    0.000000
     2  H    1.109422   0.000000
     3  H    1.109382   1.811673   0.000000
     4  H    1.109447   1.811684   1.811672   0.000000
     5  H    1.109389   1.811651   1.811563   1.811712   0.000000
 Symmetry turned off by external request.
 Stoichiometry    CH4
 Framework group  C1[X(CH4)]
 Deg. of freedom     9
 Full point group                 C1      NOp   1
 Rotational constants (GHZ):    152.7913304    152.7862911    152.7756903
 Standard basis: 6-311+G(2df,2p) (5D, 7F)
 Integral buffers will be    131072 words long.
 Raffenetti 2 integral format.
 Two-electron integral symmetry is turned off.
    70 basis functions,    96 primitive gaussians,    75 cartesian basis functions
     5 alpha electrons        5 beta electrons
       nuclear repulsion energy        13.2003257510 Hartrees.
 NAtoms=    5 NActive=    5 NUniq=    5 SFac= 1.00D+00 NAtFMM=   50 NAOKFM=F Big=F
 One-electron integrals computed using PRISM.
 NBasis=    70 RedAO= T  NBF=    70
 NBsUse=    70 1.00D-06 NBFU=    70
 Harris functional with IExCor= 1009 diagonalized for initial guess.
 ExpMin= 4.38D-02 ExpMax= 4.56D+03 ExpMxC= 6.82D+02 IAcc=2 IRadAn=         0 AccDes= 0.00D+00
 HarFok:  IExCor= 1009 AccDes= 0.00D+00 IRadAn=         0 IDoV= 1
 ScaDFX=  1.000000  1.000000  1.000000  1.000000
 FoFCou: FMM=F IPFlag=           0 FMFlag=      100000 FMFlg1=           0
         NFxFlg=           0 DoJE=T BraDBF=F KetDBF=T FulRan=T
         Omega=  0.000000  0.000000  1.000000  0.000000  0.000000 ICntrl=     500 IOpCl=  0
         NMat0=    1 NMatS0=    1 NMatT0=    0 NMatD0=    1 NMtDS0=    0 NMtDT0=    0
         I1Cent=           4 NGrid=           0.
 Symmetry not used in FoFCou.
 Requested convergence on RMS density matrix=1.00D-08 within 128 cycles.
 Requested convergence on MAX density matrix=1.00D-06.
 Requested convergence on             energy=1.00D-06.
 No special actions if energy rises.
 Keep R1 ints in memory in canonical form, NReq=6082495.
 SCF Done:  E(RM062X) =  -40.4984988063     A.U. after    8 cycles
             Convg  =    0.1051D-08             -V/T =  2.0080
 Range of M.O.s used for correlation:     1    70
 NBasis=    70 NAE=     5 NBE=     5 NFC=     0 NFV=     0
 NROrb=     70 NOA=     5 NOB=     5 NVA=    65 NVB=    65

 **** Warning!!: The largest alpha MO coefficient is  0.11405351D+02

 Symmetrizing basis deriv contribution to polar:
 IMax=3 JMax=2 DiffMx= 0.00D+00
 G2DrvN: will do     6 centers at a time, making    1 passes doing MaxLOS=3.
 Calling FoFCou, ICntrl=  3107 FMM=F I1Cent=   0 AccDes= 0.00D+00.
 FoFDir/FoFCou used for L=0 through L=3.
 End of G2Drv Frequency-dependent properties file   721 does not exist.
 End of G2Drv Frequency-dependent properties file   722 does not exist.
          IDoAtm=11111
          Differentiating once with respect to nuclear coordinates.
          Keep R1 ints in memory in canonical form, NReq=6004471.
          There are    18 degrees of freedom in the 1st order CPHF.  IDoFFX=5.
     12 vectors produced by pass  0 Test12= 1.81D-11 5.56D-07 XBig12= 3.77D-02 7.53D-02.
 AX will form    12 AO Fock derivatives at one time.
     12 vectors produced by pass  1 Test12= 1.81D-11 5.56D-07 XBig12= 9.57D-04 1.31D-02.
     12 vectors produced by pass  2 Test12= 1.81D-11 5.56D-07 XBig12= 1.56D-05 1.48D-03.
     12 vectors produced by pass  3 Test12= 1.81D-11 5.56D-07 XBig12= 9.09D-08 1.31D-04.
      6 vectors produced by pass  4 Test12= 1.81D-11 5.56D-07 XBig12= 4.67D-10 6.10D-06.
 Inverted reduced A of dimension    54 with in-core refinement.
 End of Minotr Frequency-dependent properties file   721 does not exist.
 End of Minotr Frequency-dependent properties file   722 does not exist.

 **********************************************************************

            Population analysis using the SCF density.

 **********************************************************************

 Alpha  occ. eigenvalues --  -10.52304  -0.77892  -0.45206  -0.45205  -0.45205
 Alpha virt. eigenvalues --    0.02191   0.06110   0.06111   0.06112   0.17727
 Alpha virt. eigenvalues --    0.17729   0.17729   0.22439   0.43100   0.43101
 Alpha virt. eigenvalues --    0.43102   0.53781   0.53783   0.54333   0.54335
 Alpha virt. eigenvalues --    0.54336   0.63542   0.72491   0.89925   0.89926
 Alpha virt. eigenvalues --    0.89928   1.08052   1.08054   1.08055   1.17516
 Alpha virt. eigenvalues --    1.17520   1.17523   1.40395   1.40398   1.41779
 Alpha virt. eigenvalues --    1.41782   1.41785   1.57466   2.34296   2.34303
 Alpha virt. eigenvalues --    2.34311   2.39156   2.98107   2.98119   2.98127
 Alpha virt. eigenvalues --    3.14494   3.14501   3.14511   3.28844   3.28850
 Alpha virt. eigenvalues --    3.32222   3.32235   3.32244   3.81708   3.81718
 Alpha virt. eigenvalues --    3.81728   3.86257   4.02916   4.02926   4.15475
 Alpha virt. eigenvalues --    4.15483   4.15492   4.37107   4.37116   4.37121
 Alpha virt. eigenvalues --    4.78538   5.48860   5.48915   5.48953  24.26104
          Condensed to atoms (all electrons):
              1          2          3          4          5
     1  C    4.818497   0.397290   0.397290   0.397316   0.397292
     2  H    0.397290   0.579573  -0.026249  -0.026252  -0.026240
     3  H    0.397290  -0.026249   0.579513  -0.026240  -0.026257
     4  H    0.397316  -0.026252  -0.026240   0.579480  -0.026259
     5  H    0.397292  -0.026240  -0.026257  -0.026259   0.579553
 Mulliken atomic charges:
              1
     1  C   -0.407685
     2  H    0.101878
     3  H    0.101942
     4  H    0.101954
     5  H    0.101911
 Sum of Mulliken atomic charges =   0.00000
 Mulliken charges with hydrogens summed into heavy atoms:
              1
     1  C    0.000000
 Sum of Mulliken charges with hydrogens summed into heavy atoms =   0.00000
 APT atomic charges:
              1
     1  C   -1.054063
     2  H    0.263472
     3  H    0.263539
     4  H    0.263552
     5  H    0.263499
 Sum of APT charges=   0.00000
 APT Atomic charges with hydrogens summed into heavy atoms:
              1
     1  C    0.000000
     2  H    0.000000
     3  H    0.000000
     4  H    0.000000
     5  H    0.000000
 Sum of APT charges=   0.00000
 Electronic spatial extent (au):  <R**2>=             36.5424
 Charge=              0.0000 electrons
 Dipole moment (field-independent basis, Debye):
    X=              0.0000    Y=              0.0001    Z=              0.0001  Tot=              0.0001
 Quadrupole moment (field-independent basis, Debye-Ang):
   XX=             -8.5014   YY=             -8.5013   ZZ=             -8.5010
   XY=             -0.0001   XZ=              0.0001   YZ=              0.0000
 Traceless Quadrupole moment (field-independent basis, Debye-Ang):
   XX=             -0.0002   YY=             -0.0001   ZZ=              0.0002
   XY=             -0.0001   XZ=              0.0001   YZ=              0.0000
 Octapole moment (field-independent basis, Debye-Ang**2):
  XXX=              0.2277  YYY=              0.3580  ZZZ=              0.5807  XYY=              0.2149
  XXY=             -0.6183  XXZ=             -0.1234  XZZ=             -0.4427  YZZ=              0.2605
  YYZ=             -0.4574  XYZ=             -0.3830
 Hexadecapole moment (field-independent basis, Debye-Ang**3):
 XXXX=            -16.9544 YYYY=            -17.0378 ZZZZ=            -16.7619 XXXY=             -0.2874
 XXXZ=              0.3346 YYYX=              0.1516 YYYZ=             -0.4641 ZZZX=             -0.3840
 ZZZY=              0.2561 XXYY=             -5.4036 XXZZ=             -5.6801 YYZZ=             -5.5963
 XXYZ=              0.2077 YYXZ=              0.0493 ZZXY=              0.1363
 N-N= 1.320032575104D+01 E-N=-1.195602841703D+02  KE= 4.017883117082D+01
  Exact polarizability:   0.000   0.000   0.000   0.000   0.000   0.000
 Approx polarizability:  16.752  -0.001  16.752   0.000   0.000  16.753
 Calling FoFJK, ICntrl=    100147 FMM=F ISym2X=0 I1Cent= 0 IOpClX= 0 NMat=1 NMatS=1 NMatT=0.
 -------------------------------------------------------------------
 Center     Atomic                   Forces (Hartrees/Bohr)
 Number     Number              X              Y              Z
 -------------------------------------------------------------------
      1        6           0.000033617   -0.000023928    0.000021476
      2        1          -0.011935101    0.007870046   -0.000988926
      3        1          -0.002848694   -0.012208881    0.006913543
      4        1           0.004801210   -0.002979375   -0.013167523
      5        1           0.009948968    0.007342138    0.007221429
 -------------------------------------------------------------------
 Cartesian Forces:  Max     0.013167523 RMS     0.007396771

 GradGradGradGradGradGradGradGradGradGradGradGradGradGradGradGradGradGrad
 Berny optimization.
 Internal  Forces:  Max     0.014330351 RMS     0.007656365
 Search for a local minimum.
 Step number   1 out of a maximum of  100
 All quantities printed in internal units (Hartrees-Bohrs-Radians)
 Mixed Optimization -- RFO/linear search
 Second derivative matrix not updated -- analytic derivatives used.
 The second derivative matrix:
                          R1        R2        R3        R4        A1
           R1           0.31179
           R2           0.00231   0.31048
           R3           0.00224   0.00236   0.31119
           R4           0.00230   0.00226   0.00216   0.31130
           A1           0.00185   0.00190  -0.00122  -0.00269   0.01915
           A2           0.00321  -0.00080   0.00325  -0.00543  -0.00854
           A3           0.00555  -0.00464  -0.00510   0.00440  -0.01263
           A4          -0.00077   0.00305   0.00328  -0.00536  -0.00845
           A5          -0.00465   0.00568  -0.00512   0.00397  -0.01280
           A6          -0.00519  -0.00518   0.00491   0.00510   0.02327
           D1           0.00376   0.00370   0.00251  -0.00990   0.01305
           D2          -0.00282  -0.00296   0.00775  -0.00184  -0.00789
           D3           0.00415  -0.00699   0.00387  -0.00083  -0.00394
           D4           0.00697  -0.00403  -0.00388   0.00100   0.00395
                          A2        A3        A4        A5        A6
           A2           0.03597
           A3          -0.02189   0.07026
           A4          -0.00211   0.02416   0.03599
           A5           0.02421  -0.03434  -0.02205   0.07089
           A6          -0.02764  -0.02556  -0.02755  -0.02593   0.08341
           D1           0.01028  -0.01407   0.01039  -0.01435  -0.00530
           D2           0.00903  -0.00652   0.00906  -0.00671   0.00303
           D3           0.01372   0.00056  -0.00466  -0.00725   0.00157
           D4           0.00468   0.00709  -0.01371  -0.00054  -0.00146
                          D1        D2        D3        D4
           D1           0.02864
           D2           0.00142   0.01776
           D3           0.00072   0.00893   0.01811
           D4          -0.00070  -0.00884   0.00918   0.01802
 ITU=  0
     Eigenvalues ---    0.03641   0.04103   0.06225   0.12695   0.12832
     Eigenvalues ---    0.30932   0.31026   0.31040   0.31803
 RFO step:  Lambda=-2.56016788D-03 EMin= 3.64125500D-02
 Linear search not attempted -- first point.
 Iteration  1 RMS(Cart)=  0.02388530 RMS(Int)=  0.00000547
 Iteration  2 RMS(Cart)=  0.00000496 RMS(Int)=  0.00000003
 Iteration  3 RMS(Cart)=  0.00000000 RMS(Int)=  0.00000003
 Variable       Old X    -DE/DX   Delta X   Delta X   Delta X     New X
                                 (Linear)    (Quad)   (Total)
    R1        2.09650  -0.01433   0.00000  -0.04464  -0.04464   2.05187
    R2        2.09643  -0.01432   0.00000  -0.04473  -0.04473   2.05170
    R3        2.09655  -0.01433   0.00000  -0.04471  -0.04471   2.05184
    R4        2.09644  -0.01432   0.00000  -0.04465  -0.04465   2.05179
    A1        1.91068  -0.00002   0.00000  -0.00026  -0.00026   1.91042
    A2        1.91061   0.00003   0.00000   0.00050   0.00050   1.91111
    A3        1.91063   0.00001   0.00000   0.00021   0.00021   1.91084
    A4        1.91064   0.00001   0.00000   0.00005   0.00005   1.91069
    A5        1.91055   0.00002   0.00000  -0.00005  -0.00005   1.91050
    A6        1.91070  -0.00005   0.00000  -0.00046  -0.00046   1.91024
    D1        2.09444   0.00000   0.00000   0.00002   0.00002   2.09446
    D2       -2.09439   0.00000   0.00000   0.00021   0.00021  -2.09418
    D3        2.09440   0.00001   0.00000   0.00046   0.00046   2.09486
    D4       -2.09439   0.00001   0.00000   0.00025   0.00025  -2.09414
         Item               Value     Threshold  Converged?
 Maximum Force            0.014330     0.000002     NO 
 RMS     Force            0.007656     0.000001     NO 
 Maximum Displacement     0.041220     0.000006     NO 
 RMS     Displacement     0.023885     0.000004     NO 
 Predicted change in Energy=-1.290308D-03
 GradGradGradGradGradGradGradGradGradGradGradGradGradGradGradGradGradGrad

                          Input orientation:                          
 ---------------------------------------------------------------------
 Center     Atomic      Atomic             Coordinates (Angstroms)
 Number     Number       Type             X           Y           Z
 ---------------------------------------------------------------------
      1          6           0        0.000075   -0.000036    0.000060
      2          1           0        0.905375   -0.595368    0.070602
      3          1           0        0.216290    0.926426   -0.523091
      4          1           0       -0.364814    0.224303    0.997787
      5          1           0       -0.756926   -0.555325   -0.545358
 ---------------------------------------------------------------------
                    Distance matrix (angstroms):
                    1          2          3          4          5
     1  C    0.000000
     2  H    1.085801   0.000000
     3  H    1.085711   1.772898   0.000000
     4  H    1.085787   1.773390   1.773056   0.000000
     5  H    1.085760   1.773205   1.772916   1.772814   0.000000
 Symmetry turned off by external request.
 Stoichiometry    CH4
 Framework group  C1[X(CH4)]
 Deg. of freedom     9
 Full point group                 C1      NOp   1
 Rotational constants (GHZ):    159.5546094    159.4918004    159.4879440
 Standard basis: 6-311+G(2df,2p) (5D, 7F)
 Integral buffers will be    131072 words long.
 Raffenetti 2 integral format.
 Two-electron integral symmetry is turned off.
    70 basis functions,    96 primitive gaussians,    75 cartesian basis functions
     5 alpha electrons        5 beta electrons
       nuclear repulsion energy        13.4877968380 Hartrees.
 NAtoms=    5 NActive=    5 NUniq=    5 SFac= 1.00D+00 NAtFMM=   50 NAOKFM=F Big=F
 One-electron integrals computed using PRISM.
 NBasis=    70 RedAO= T  NBF=    70
 NBsUse=    70 1.00D-06 NBFU=    70
 Initial guess read from the read-write file.
 B after Tr=     0.000000    0.000000    0.000000
         Rot=    1.000000    0.000000    0.000000    0.000000 Ang=   0.00 deg.
 Harris functional with IExCor= 1009 diagonalized for initial guess.
 ExpMin= 4.38D-02 ExpMax= 4.56D+03 ExpMxC= 6.82D+02 IAcc=2 IRadAn=         0 AccDes= 0.00D+00
 HarFok:  IExCor= 1009 AccDes= 0.00D+00 IRadAn=         0 IDoV= 1
 ScaDFX=  1.000000  1.000000  1.000000  1.000000
 FoFCou: FMM=F IPFlag=           0 FMFlag=      100000 FMFlg1=           0
         NFxFlg=           0 DoJE=T BraDBF=F KetDBF=T FulRan=T
         Omega=  0.000000  0.000000  1.000000  0.000000  0.000000 ICntrl=     500 IOpCl=  0
         NMat0=    1 NMatS0=    1 NMatT0=    0 NMatD0=    1 NMtDS0=    0 NMtDT0=    0
         I1Cent=           4 NGrid=           0.
 Symmetry not used in FoFCou.
 Requested convergence on RMS density matrix=1.00D-08 within 128 cycles.
 Requested convergence on MAX density matrix=1.00D-06.
 Requested convergence on             energy=1.00D-06.
 No special actions if energy rises.
 Keep R1 ints in memory in canonical form, NReq=6082495.
 SCF Done:  E(RM062X) =  -40.4997404803     A.U. after    6 cycles
             Convg  =    0.4969D-08             -V/T =  2.0049
 Calling FoFJK, ICntrl=      2127 FMM=F ISym2X=0 I1Cent= 0 IOpClX= 0 NMat=1 NMatS=1 NMatT=0.
 -------------------------------------------------------------------
 Center     Atomic                   Forces (Hartrees/Bohr)
 Number     Number              X              Y              Z
 -------------------------------------------------------------------
      1        6          -0.000020615   -0.000015138    0.000030976
      2        1           0.000594305   -0.000396141    0.000009758
      3        1           0.000135007    0.000642819   -0.000337562
      4        1          -0.000188134    0.000133241    0.000659561
      5        1          -0.000520563   -0.000364781   -0.000362733
 -------------------------------------------------------------------
 Cartesian Forces:  Max     0.000659561 RMS     0.000372471

 GradGradGradGradGradGradGradGradGradGradGradGradGradGradGradGradGradGrad
 Berny optimization.
 Using GEDIIS/GDIIS optimizer.
 Internal  Forces:  Max     0.000738072 RMS     0.000385014
 Search for a local minimum.
 Step number   2 out of a maximum of  100
 All quantities printed in internal units (Hartrees-Bohrs-Radians)
 Mixed Optimization -- En-DIIS/RFO-DIIS
 Update second derivatives using D2CorX and points    1    2
 DE= -1.24D-03 DEPred=-1.29D-03 R= 9.62D-01
 SS=  1.41D+00  RLast= 8.94D-02 DXNew= 5.0454D-01 2.6811D-01
 Trust test= 9.62D-01 RLast= 8.94D-02 DXMaxT set to 3.00D-01
 The second derivative matrix:
                          R1        R2        R3        R4        A1
           R1           0.31639
           R2           0.00704   0.31535
           R3           0.00674   0.00700   0.31560
           R4           0.00700   0.00709   0.00677   0.31609
           A1           0.00187   0.00192  -0.00120  -0.00267   0.01915
           A2           0.00316  -0.00085   0.00320  -0.00548  -0.00854
           A3           0.00551  -0.00468  -0.00514   0.00436  -0.01263
           A4          -0.00083   0.00298   0.00322  -0.00542  -0.00845
           A5          -0.00464   0.00569  -0.00511   0.00398  -0.01280
           A6          -0.00506  -0.00506   0.00503   0.00522   0.02327
           D1           0.00372   0.00366   0.00246  -0.00994   0.01305
           D2          -0.00282  -0.00297   0.00774  -0.00184  -0.00789
           D3           0.00414  -0.00701   0.00385  -0.00084  -0.00394
           D4           0.00696  -0.00404  -0.00389   0.00100   0.00395
                          A2        A3        A4        A5        A6
           A2           0.03597
           A3          -0.02189   0.07026
           A4          -0.00211   0.02416   0.03599
           A5           0.02421  -0.03434  -0.02205   0.07089
           A6          -0.02764  -0.02556  -0.02755  -0.02593   0.08341
           D1           0.01028  -0.01407   0.01039  -0.01435  -0.00530
           D2           0.00903  -0.00652   0.00906  -0.00671   0.00303
           D3           0.01372   0.00056  -0.00466  -0.00725   0.00157
           D4           0.00468   0.00709  -0.01371  -0.00054  -0.00146
                          D1        D2        D3        D4
           D1           0.02864
           D2           0.00142   0.01776
           D3           0.00072   0.00893   0.01811
           D4          -0.00070  -0.00884   0.00918   0.01802
 ITU=  1  0
 Use linear search instead of GDIIS.
     Eigenvalues ---    0.03641   0.04103   0.06225   0.12695   0.12832
     Eigenvalues ---    0.30933   0.31027   0.31040   0.33668
 RFO step:  Lambda= 0.00000000D+00 EMin= 3.64125170D-02
 Quartic linear search produced a step of -0.04534.
 Iteration  1 RMS(Cart)=  0.00108494 RMS(Int)=  0.00000007
 Iteration  2 RMS(Cart)=  0.00000006 RMS(Int)=  0.00000000
 Variable       Old X    -DE/DX   Delta X   Delta X   Delta X     New X
                                 (Linear)    (Quad)   (Total)
    R1        2.05187   0.00071   0.00202  -0.00002   0.00201   2.05388
    R2        2.05170   0.00074   0.00203   0.00006   0.00209   2.05379
    R3        2.05184   0.00070   0.00203  -0.00007   0.00195   2.05379
    R4        2.05179   0.00073   0.00202   0.00003   0.00205   2.05384
    A1        1.91042   0.00000   0.00001  -0.00004  -0.00003   1.91039
    A2        1.91111  -0.00001  -0.00002  -0.00005  -0.00007   1.91103
    A3        1.91084  -0.00001  -0.00001  -0.00002  -0.00003   1.91081
    A4        1.91069  -0.00001   0.00000  -0.00009  -0.00009   1.91060
    A5        1.91050   0.00000   0.00000   0.00003   0.00003   1.91053
    A6        1.91024   0.00002   0.00002   0.00017   0.00019   1.91043
    D1        2.09446  -0.00001   0.00000  -0.00014  -0.00014   2.09432
    D2       -2.09418   0.00000  -0.00001   0.00005   0.00004  -2.09414
    D3        2.09486   0.00000  -0.00002   0.00003   0.00001   2.09487
    D4       -2.09414   0.00000  -0.00001  -0.00002  -0.00003  -2.09417
         Item               Value     Threshold  Converged?
 Maximum Force            0.000738     0.000002     NO 
 RMS     Force            0.000385     0.000001     NO 
 Maximum Displacement     0.001855     0.000006     NO 
 RMS     Displacement     0.001085     0.000004     NO 
 Predicted change in Energy=-3.075780D-06
 GradGradGradGradGradGradGradGradGradGradGradGradGradGradGradGradGradGrad

                          Input orientation:                          
 ---------------------------------------------------------------------
 Center     Atomic      Atomic             Coordinates (Angstroms)
 Number     Number       Type             X           Y           Z
 ---------------------------------------------------------------------
      1          6           0        0.000032   -0.000054    0.000066
      2          1           0        0.906229   -0.595950    0.070694
      3          1           0        0.216501    0.927367   -0.523576
      4          1           0       -0.365096    0.224560    0.998769
      5          1           0       -0.757666   -0.555922   -0.545954
 ---------------------------------------------------------------------
                    Distance matrix (angstroms):
                    1          2          3          4          5
     1  C    0.000000
     2  H    1.086864   0.000000
     3  H    1.086817   1.774648   0.000000
     4  H    1.086820   1.775057   1.774747   0.000000
     5  H    1.086846   1.774938   1.774726   1.774664   0.000000
 Symmetry turned off by external request.
 Stoichiometry    CH4
 Framework group  C1[X(CH4)]
 Deg. of freedom     9
 Full point group                 C1      NOp   1
 Rotational constants (GHZ):    159.2290942    159.1851510    159.1766759
 Standard basis: 6-311+G(2df,2p) (5D, 7F)
 Integral buffers will be    131072 words long.
 Raffenetti 2 integral format.
 Two-electron integral symmetry is turned off.
    70 basis functions,    96 primitive gaussians,    75 cartesian basis functions
     5 alpha electrons        5 beta electrons
       nuclear repulsion energy        13.4744947346 Hartrees.
 NAtoms=    5 NActive=    5 NUniq=    5 SFac= 1.00D+00 NAtFMM=   50 NAOKFM=F Big=F
 One-electron integrals computed using PRISM.
 NBasis=    70 RedAO= T  NBF=    70
 NBsUse=    70 1.00D-06 NBFU=    70
 Initial guess read from the read-write file.
 B after Tr=     0.000000    0.000000    0.000000
         Rot=    1.000000    0.000000    0.000000    0.000000 Ang=   0.00 deg.
 Requested convergence on RMS density matrix=1.00D-08 within 128 cycles.
 Requested convergence on MAX density matrix=1.00D-06.
 Requested convergence on             energy=1.00D-06.
 No special actions if energy rises.
 Keep R1 ints in memory in canonical form, NReq=6082495.
 SCF Done:  E(RM062X) =  -40.4997433917     A.U. after    5 cycles
             Convg  =    0.7410D-08             -V/T =  2.0050
 Calling FoFJK, ICntrl=      2127 FMM=F ISym2X=0 I1Cent= 0 IOpClX= 0 NMat=1 NMatS=1 NMatT=0.
 -------------------------------------------------------------------
 Center     Atomic                   Forces (Hartrees/Bohr)
 Number     Number              X              Y              Z
 -------------------------------------------------------------------
      1        6           0.000000116    0.000003326   -0.000005335
      2        1           0.000000175   -0.000004826   -0.000040490
      3        1          -0.000014248    0.000005090    0.000014191
      4        1           0.000031267   -0.000019081    0.000017185
      5        1          -0.000017310    0.000015492    0.000014449
 -------------------------------------------------------------------
 Cartesian Forces:  Max     0.000040490 RMS     0.000017355

 GradGradGradGradGradGradGradGradGradGradGradGradGradGradGradGradGradGrad
 Berny optimization.
 Using GEDIIS/GDIIS optimizer.
 Internal  Forces:  Max     0.000005332 RMS     0.000001714
 Search for a local minimum.
 Step number   3 out of a maximum of  100
 All quantities printed in internal units (Hartrees-Bohrs-Radians)
 Mixed Optimization -- En-DIIS/RFO-DIIS
 Swaping is turned off.
 Update second derivatives using D2CorX and points    1    2    3
 DE= -2.91D-06 DEPred=-3.08D-06 R= 9.47D-01
 SS=  1.41D+00  RLast= 4.06D-03 DXNew= 5.0454D-01 1.2185D-02
 Trust test= 9.47D-01 RLast= 4.06D-03 DXMaxT set to 3.00D-01
 The second derivative matrix:
                          R1        R2        R3        R4        A1
           R1           0.32081
           R2           0.01214   0.32116
           R3           0.01103   0.01194   0.31976
           R4           0.01181   0.01261   0.01144   0.32132
           A1           0.00191   0.00196  -0.00116  -0.00263   0.01915
           A2           0.00309  -0.00093   0.00314  -0.00556  -0.00854
           A3           0.00545  -0.00475  -0.00520   0.00430  -0.01263
           A4          -0.00090   0.00291   0.00316  -0.00549  -0.00845
           A5          -0.00463   0.00571  -0.00509   0.00400  -0.01280
           A6          -0.00493  -0.00490   0.00516   0.00537   0.02327
           D1           0.00368   0.00361   0.00243  -0.00999   0.01305
           D2          -0.00284  -0.00299   0.00773  -0.00186  -0.00789
           D3           0.00410  -0.00705   0.00382  -0.00088  -0.00394
           D4           0.00695  -0.00406  -0.00391   0.00098   0.00395
                          A2        A3        A4        A5        A6
           A2           0.03597
           A3          -0.02189   0.07026
           A4          -0.00211   0.02416   0.03599
           A5           0.02421  -0.03434  -0.02205   0.07089
           A6          -0.02764  -0.02556  -0.02755  -0.02592   0.08342
           D1           0.01028  -0.01407   0.01040  -0.01435  -0.00530
           D2           0.00903  -0.00652   0.00906  -0.00671   0.00303
           D3           0.01372   0.00056  -0.00466  -0.00725   0.00157
           D4           0.00468   0.00709  -0.01371  -0.00054  -0.00146
                          D1        D2        D3        D4
           D1           0.02864
           D2           0.00142   0.01776
           D3           0.00072   0.00893   0.01811
           D4          -0.00070  -0.00884   0.00918   0.01802
 ITU=  1  1  0
     Eigenvalues ---    0.03641   0.04103   0.06225   0.12696   0.12832
     Eigenvalues ---    0.30935   0.31027   0.31040   0.35629
 En-DIIS/RFO-DIIS IScMMF=        0 using points:     3    2
 RFO step:  Lambda= 0.00000000D+00.
 DidBck=F Rises=F RFO-DIIS coefs:    0.99746    0.00254
 Iteration  1 RMS(Cart)=  0.00000506 RMS(Int)=  0.00000000
 Iteration  2 RMS(Cart)=  0.00000000 RMS(Int)=  0.00000000
 Variable       Old X    -DE/DX   Delta X   Delta X   Delta X     New X
                                  (DIIS)     (GDIIS)  (Total)
    R1        2.05388   0.00000  -0.00001   0.00001   0.00000   2.05388
    R2        2.05379  -0.00001  -0.00001  -0.00001  -0.00002   2.05377
    R3        2.05379   0.00000   0.00000   0.00001   0.00001   2.05380
    R4        2.05384   0.00000  -0.00001   0.00000  -0.00001   2.05383
    A1        1.91039   0.00000   0.00000   0.00000   0.00000   1.91039
    A2        1.91103   0.00000   0.00000   0.00000   0.00000   1.91103
    A3        1.91081   0.00000   0.00000   0.00000   0.00000   1.91081
    A4        1.91060   0.00000   0.00000   0.00001   0.00001   1.91061
    A5        1.91053   0.00000   0.00000   0.00000   0.00000   1.91053
    A6        1.91043   0.00000   0.00000  -0.00001  -0.00001   1.91042
    D1        2.09432   0.00000   0.00000   0.00001   0.00001   2.09433
    D2       -2.09414   0.00000   0.00000   0.00000   0.00000  -2.09415
    D3        2.09487   0.00000   0.00000  -0.00001  -0.00001   2.09486
    D4       -2.09417   0.00000   0.00000   0.00000   0.00000  -2.09417
         Item               Value     Threshold  Converged?
 Maximum Force            0.000005     0.000002     NO 
 RMS     Force            0.000002     0.000001     NO 
 Maximum Displacement     0.000011     0.000006     NO 
 RMS     Displacement     0.000005     0.000004     NO 
 Predicted change in Energy=-6.895912D-11
 GradGradGradGradGradGradGradGradGradGradGradGradGradGradGradGradGradGrad

                          Input orientation:                          
 ---------------------------------------------------------------------
 Center     Atomic      Atomic             Coordinates (Angstroms)
 Number     Number       Type             X           Y           Z
 ---------------------------------------------------------------------
      1          6           0        0.000034   -0.000052    0.000064
      2          1           0        0.906230   -0.595950    0.070693
      3          1           0        0.216500    0.927362   -0.523575
      4          1           0       -0.365099    0.224558    0.998769
      5          1           0       -0.757664   -0.555918   -0.545950
 ---------------------------------------------------------------------
                    Distance matrix (angstroms):
                    1          2          3          4          5
     1  C    0.000000
     2  H    1.086865   0.000000
     3  H    1.086808   1.774644   0.000000
     4  H    1.086823   1.775059   1.774746   0.000000
     5  H    1.086841   1.774935   1.774715   1.774657   0.000000
 Symmetry turned off by external request.
 Stoichiometry    CH4
 Framework group  C1[X(CH4)]
 Deg. of freedom     9
 Full point group                 C1      NOp   1
 Rotational constants (GHZ):    159.2304278    159.1853774    159.1773637
 Standard basis: 6-311+G(2df,2p) (5D, 7F)
 Integral buffers will be    131072 words long.
 Raffenetti 2 integral format.
 Two-electron integral symmetry is turned off.
    70 basis functions,    96 primitive gaussians,    75 cartesian basis functions
     5 alpha electrons        5 beta electrons
       nuclear repulsion energy        13.4745264411 Hartrees.
 NAtoms=    5 NActive=    5 NUniq=    5 SFac= 1.00D+00 NAtFMM=   50 NAOKFM=F Big=F
 One-electron integrals computed using PRISM.
 NBasis=    70 RedAO= T  NBF=    70
 NBsUse=    70 1.00D-06 NBFU=    70
 Initial guess read from the read-write file.
 B after Tr=     0.000000    0.000000    0.000000
         Rot=    1.000000    0.000000    0.000000    0.000000 Ang=   0.00 deg.
 Requested convergence on RMS density matrix=1.00D-08 within 128 cycles.
 Requested convergence on MAX density matrix=1.00D-06.
 Requested convergence on             energy=1.00D-06.
 No special actions if energy rises.
 Keep R1 ints in memory in canonical form, NReq=6082495.
 SCF Done:  E(RM062X) =  -40.4997433918     A.U. after    3 cycles
             Convg  =    0.6009D-08             -V/T =  2.0050
 Calling FoFJK, ICntrl=      2127 FMM=F ISym2X=0 I1Cent= 0 IOpClX= 0 NMat=1 NMatS=1 NMatT=0.
 -------------------------------------------------------------------
 Center     Atomic                   Forces (Hartrees/Bohr)
 Number     Number              X              Y              Z
 -------------------------------------------------------------------
      1        6           0.000000054   -0.000000369    0.000000640
      2        1          -0.000000121   -0.000004573   -0.000040539
      3        1          -0.000013013    0.000010178    0.000011732
      4        1           0.000032326   -0.000018933    0.000015670
      5        1          -0.000019244    0.000013697    0.000012498
 -------------------------------------------------------------------
 Cartesian Forces:  Max     0.000040539 RMS     0.000017202

 GradGradGradGradGradGradGradGradGradGradGradGradGradGradGradGradGradGrad
 Berny optimization.
 Using GEDIIS/GDIIS optimizer.
 Internal  Forces:  Max     0.000000441 RMS     0.000000170
 Search for a local minimum.
 Step number   4 out of a maximum of  100
 All quantities printed in internal units (Hartrees-Bohrs-Radians)
 Mixed Optimization -- En-DIIS/RFO-DIIS
 Swaping is turned off.
 Update second derivatives using D2CorX and points    1    2    3    4
 DE= -6.32D-11 DEPred=-6.90D-11 R= 9.16D-01
 Trust test= 9.16D-01 RLast= 2.49D-05 DXMaxT set to 3.00D-01
 The second derivative matrix:
                          R1        R2        R3        R4        A1
           R1           0.32170
           R2           0.00322   0.33854
           R3           0.01403  -0.00249   0.32648
           R4           0.00696   0.01789   0.00449   0.32168
           A1           0.00180   0.00200  -0.00130  -0.00267   0.01915
           A2           0.00335  -0.00096   0.00345  -0.00542  -0.00853
           A3           0.00591  -0.00514  -0.00457   0.00433  -0.01262
           A4          -0.00013   0.00250   0.00416  -0.00529  -0.00844
           A5          -0.00480   0.00581  -0.00532   0.00396  -0.01280
           A6          -0.00613  -0.00421   0.00357   0.00508   0.02325
           D1           0.00418   0.00338   0.00307  -0.00983   0.01306
           D2          -0.00289  -0.00286   0.00764  -0.00181  -0.00789
           D3           0.00396  -0.00689   0.00362  -0.00087  -0.00395
           D4           0.00685  -0.00403  -0.00403   0.00094   0.00394
                          A2        A3        A4        A5        A6
           A2           0.03595
           A3          -0.02191   0.07025
           A4          -0.00215   0.02414   0.03592
           A5           0.02422  -0.03433  -0.02203   0.07089
           A6          -0.02759  -0.02552  -0.02744  -0.02595   0.08325
           D1           0.01025  -0.01410   0.01034  -0.01434  -0.00522
           D2           0.00903  -0.00653   0.00905  -0.00671   0.00304
           D3           0.01372   0.00056  -0.00465  -0.00725   0.00156
           D4           0.00469   0.00709  -0.01370  -0.00054  -0.00148
                          D1        D2        D3        D4
           D1           0.02861
           D2           0.00141   0.01777
           D3           0.00072   0.00893   0.01811
           D4          -0.00069  -0.00884   0.00918   0.01802
 ITU=  0  1  1  0
     Eigenvalues ---    0.03644   0.04109   0.06217   0.12675   0.12833
     Eigenvalues ---    0.31004   0.31027   0.33908   0.35214
 En-DIIS/RFO-DIIS IScMMF=        0 using points:     4    3    2
 RFO step:  Lambda= 0.00000000D+00.
 DidBck=F Rises=F RFO-DIIS coefs:    0.89960    0.10014    0.00025
 Iteration  1 RMS(Cart)=  0.00000037 RMS(Int)=  0.00000000
 Variable       Old X    -DE/DX   Delta X   Delta X   Delta X     New X
                                  (DIIS)     (GDIIS)  (Total)
    R1        2.05388   0.00000   0.00000   0.00000   0.00000   2.05388
    R2        2.05377   0.00000   0.00000   0.00000   0.00000   2.05377
    R3        2.05380   0.00000   0.00000   0.00000   0.00000   2.05380
    R4        2.05383   0.00000   0.00000   0.00000   0.00000   2.05383
    A1        1.91039   0.00000   0.00000   0.00000   0.00000   1.91039
    A2        1.91103   0.00000   0.00000   0.00000   0.00000   1.91103
    A3        1.91081   0.00000   0.00000   0.00000   0.00000   1.91081
    A4        1.91061   0.00000   0.00000   0.00000   0.00000   1.91061
    A5        1.91053   0.00000   0.00000   0.00000   0.00000   1.91053
    A6        1.91042   0.00000   0.00000   0.00000   0.00000   1.91042
    D1        2.09433   0.00000   0.00000   0.00000   0.00000   2.09433
    D2       -2.09415   0.00000   0.00000   0.00000   0.00000  -2.09415
    D3        2.09486   0.00000   0.00000   0.00000   0.00000   2.09487
    D4       -2.09417   0.00000   0.00000   0.00000   0.00000  -2.09417
         Item               Value     Threshold  Converged?
 Maximum Force            0.000000     0.000002     YES
 RMS     Force            0.000000     0.000001     YES
 Maximum Displacement     0.000001     0.000006     YES
 RMS     Displacement     0.000000     0.000004     YES
 Predicted change in Energy=-6.039783D-13
 Optimization completed.
    -- Stationary point found.
                           ----------------------------
                           !   Optimized Parameters   !
                           ! (Angstroms and Degrees)  !
 --------------------------                            --------------------------
 ! Name  Definition              Value          Derivative Info.                !
 --------------------------------------------------------------------------------
 ! R1    R(1,2)                  1.0869         -DE/DX =    0.0                 !
 ! R2    R(1,3)                  1.0868         -DE/DX =    0.0                 !
 ! R3    R(1,4)                  1.0868         -DE/DX =    0.0                 !
 ! R4    R(1,5)                  1.0868         -DE/DX =    0.0                 !
 ! A1    A(2,1,3)              109.4573         -DE/DX =    0.0                 !
 ! A2    A(2,1,4)              109.4941         -DE/DX =    0.0                 !
 ! A3    A(2,1,5)              109.4814         -DE/DX =    0.0                 !
 ! A4    A(3,1,4)              109.4697         -DE/DX =    0.0                 !
 ! A5    A(3,1,5)              109.4656         -DE/DX =    0.0                 !
 ! A6    A(4,1,5)              109.4591         -DE/DX =    0.0                 !
 ! D1    D(2,1,4,3)            119.9961         -DE/DX =    0.0                 !
 ! D2    D(2,1,5,3)           -119.9857         -DE/DX =    0.0                 !
 ! D3    D(2,1,5,4)            120.0269         -DE/DX =    0.0                 !
 ! D4    D(3,1,5,4)           -119.9873         -DE/DX =    0.0                 !
 --------------------------------------------------------------------------------
 GradGradGradGradGradGradGradGradGradGradGradGradGradGradGradGradGradGrad

                          Input orientation:                          
 ---------------------------------------------------------------------
 Center     Atomic      Atomic             Coordinates (Angstroms)
 Number     Number       Type             X           Y           Z
 ---------------------------------------------------------------------
      1          6           0        0.000034   -0.000052    0.000064
      2          1           0        0.906230   -0.595950    0.070693
      3          1           0        0.216500    0.927362   -0.523575
      4          1           0       -0.365099    0.224558    0.998769
      5          1           0       -0.757664   -0.555918   -0.545950
 ---------------------------------------------------------------------
                    Distance matrix (angstroms):
                    1          2          3          4          5
     1  C    0.000000
     2  H    1.086865   0.000000
     3  H    1.086808   1.774644   0.000000
     4  H    1.086823   1.775059   1.774746   0.000000
     5  H    1.086841   1.774935   1.774715   1.774657   0.000000
 Symmetry turned off by external request.
 Stoichiometry    CH4
 Framework group  C1[X(CH4)]
 Deg. of freedom     9
 Full point group                 C1      NOp   1
 Rotational constants (GHZ):    159.2304278    159.1853774    159.1773637

 **********************************************************************

            Population analysis using the SCF density.

 **********************************************************************

 Alpha  occ. eigenvalues --  -10.51344  -0.78670  -0.45664  -0.45655  -0.45654
 Alpha virt. eigenvalues --    0.02210   0.06084   0.06085   0.06085   0.18210
 Alpha virt. eigenvalues --    0.18210   0.18213   0.22904   0.43009   0.43009
 Alpha virt. eigenvalues --    0.43011   0.54184   0.54190   0.55097   0.55097
 Alpha virt. eigenvalues --    0.55100   0.65109   0.72178   0.91128   0.91135
 Alpha virt. eigenvalues --    0.91137   1.08395   1.08399   1.08399   1.18660
 Alpha virt. eigenvalues --    1.18673   1.18674   1.41854   1.41863   1.43311
 Alpha virt. eigenvalues --    1.43315   1.43318   1.60380   2.33022   2.33033
 Alpha virt. eigenvalues --    2.33042   2.36546   2.99058   2.99070   2.99079
 Alpha virt. eigenvalues --    3.15530   3.15541   3.15558   3.26631   3.26651
 Alpha virt. eigenvalues --    3.34310   3.34323   3.34328   3.86271   3.86282
 Alpha virt. eigenvalues --    3.86284   3.93610   4.07935   4.07955   4.18636
 Alpha virt. eigenvalues --    4.18661   4.18693   4.41101   4.41110   4.41153
 Alpha virt. eigenvalues --    4.79294   5.58303   5.58350   5.58390  24.38597
          Condensed to atoms (all electrons):
              1          2          3          4          5
     1  C    4.814827   0.399790   0.399785   0.399809   0.399785
     2  H    0.399790   0.577542  -0.026961  -0.026916  -0.026916
     3  H    0.399785  -0.026961   0.577533  -0.026934  -0.026942
     4  H    0.399809  -0.026916  -0.026934   0.577489  -0.026967
     5  H    0.399785  -0.026916  -0.026942  -0.026967   0.577544
 Mulliken atomic charges:
              1
     1  C   -0.413996
     2  H    0.103461
     3  H    0.103520
     4  H    0.103520
     5  H    0.103496
 Sum of Mulliken atomic charges =   0.00000
 Mulliken charges with hydrogens summed into heavy atoms:
              1
     1  C    0.000000
 Sum of Mulliken charges with hydrogens summed into heavy atoms =   0.00000
 Electronic spatial extent (au):  <R**2>=             35.6874
 Charge=              0.0000 electrons
 Dipole moment (field-independent basis, Debye):
    X=             -0.0001    Y=              0.0001    Z=              0.0000  Tot=              0.0001
 Quadrupole moment (field-independent basis, Debye-Ang):
   XX=             -8.4346   YY=             -8.4360   ZZ=             -8.4358
   XY=             -0.0001   XZ=             -0.0005   YZ=              0.0001
 Traceless Quadrupole moment (field-independent basis, Debye-Ang):
   XX=              0.0008   YY=             -0.0005   ZZ=             -0.0003
   XY=             -0.0001   XZ=             -0.0005   YZ=              0.0001
 Octapole moment (field-independent basis, Debye-Ang**2):
  XXX=              0.2088  YYY=              0.3296  ZZZ=              0.5324  XYY=              0.1972
  XXY=             -0.5679  XXZ=             -0.1137  XZZ=             -0.4070  YZZ=              0.2396
  YYZ=             -0.4203  XYZ=             -0.3518
 Hexadecapole moment (field-independent basis, Debye-Ang**3):
 XXXX=            -16.3845 YYYY=            -16.4606 ZZZZ=            -16.2079 XXXY=             -0.2628
 XXXZ=              0.3058 YYYX=              0.1385 YYYZ=             -0.4238 ZZZX=             -0.3507
 ZZZY=              0.2338 XXYY=             -5.2351 XXZZ=             -5.4874 YYZZ=             -5.4109
 XXYZ=              0.1898 YYXZ=              0.0450 ZZXY=              0.1244
 N-N= 1.347452644110D+01 E-N=-1.201926750699D+02  KE= 4.029635823771D+01

 Test job not archived.
 1\1\GINC-COMPUTE-3-047\FOpt\RM062X\6-311+G(2df,2p)\C1H4\BHOORASINGH.P\
 30-Apr-2015\0\\# m062x/6-311+g(2df,2p) opt=(verytight,calcfc,maxcyc=20
 0) freq IOP(2/16=3) nosymm\\InChI=1S/CH4/h1H4/mult1\\0,1\C,0.000033528
 2,-0.0000518146,0.0000636844\H,0.9062299223,-0.595949726,0.0706930183\
 H,0.2164998477,0.9273615025,-0.5235753455\H,-0.3650992013,0.2245580019
 ,0.9987688082\H,-0.7576640969,-0.5559179637,-0.5459501654\\Version=EM6
 4L-G09RevB.01\HF=-40.4997434\RMSD=6.009e-09\RMSF=1.720e-05\Dipole=-0.0
 000301,0.0000341,-0.0000105\Quadrupole=0.0006229,-0.0003846,-0.0002383
 ,-0.0000799,-0.0003401,0.0001106\PG=C01 [X(C1H4)]\\@


 SUPPORT THE RIGHT TO ARM BEARS!
 (ADD A CLAWS TO THE BILL OF RIGHTS)
 Job cpu time:  0 days  0 hours  4 minutes  4.2 seconds.
 File lengths (MBytes):  RWF=     42 Int=      0 D2E=      0 Chk=      2 Scr=      1
 Normal termination of Gaussian 09 at Thu Apr 30 21:31:26 2015.
 Link1:  Proceeding to internal job step number  2.
 ----------------------------------------------------------------------
 #N Geom=AllCheck Guess=TCheck SCRF=Check Test GenChk RM062X/6-311+G(2d
 f,2p) Freq
 ----------------------------------------------------------------------
 1/6=200,7=1,10=4,29=7,30=1,38=1,40=1/1,3;
 2/12=2,15=1,40=1/2;
 3/5=4,6=6,7=214,11=2,14=-4,16=1,25=1,30=1,70=2,71=2,74=-55,116=1/1,2,3;
 4/5=101/1;
 5/5=2,98=1/2;
 8/6=4,10=90,11=11/1;
 11/6=1,8=1,9=11,15=111,16=1,31=1/1,2,10;
 10/6=1,31=1/2;
 6/7=2,8=2,9=2,10=2,18=1,28=1/1;
 7/8=1,10=1,25=1,30=1/1,2,3,16;
 1/6=200,7=1,10=4,30=1/3;
 99//99;
 -----------------------
 InChI=1S/CH4/h1H4/mult1
 -----------------------
 Redundant internal coordinates taken from checkpoint file:
 /scratch/bhoorasingh.p/Gau-12349.chk
 Charge =  0 Multiplicity = 1
 C,0,0.0000335282,-0.0000518146,0.0000636844
 H,0,0.9062299223,-0.595949726,0.0706930183
 H,0,0.2164998477,0.9273615025,-0.5235753455
 H,0,-0.3650992013,0.2245580019,0.9987688082
 H,0,-0.7576640969,-0.5559179637,-0.5459501654
 Recover connectivity data from disk.

 GradGradGradGradGradGradGradGradGradGradGradGradGradGradGradGradGradGrad
 Berny optimization.
 Initialization pass.
                           ----------------------------
                           !    Initial Parameters    !
                           ! (Angstroms and Degrees)  !
 --------------------------                            --------------------------
 ! Name  Definition              Value          Derivative Info.                !
 --------------------------------------------------------------------------------
 ! R1    R(1,2)                  1.0869         calculate D2E/DX2 analytically  !
 ! R2    R(1,3)                  1.0868         calculate D2E/DX2 analytically  !
 ! R3    R(1,4)                  1.0868         calculate D2E/DX2 analytically  !
 ! R4    R(1,5)                  1.0868         calculate D2E/DX2 analytically  !
 ! A1    A(2,1,3)              109.4573         calculate D2E/DX2 analytically  !
 ! A2    A(2,1,4)              109.4941         calculate D2E/DX2 analytically  !
 ! A3    A(2,1,5)              109.4814         calculate D2E/DX2 analytically  !
 ! A4    A(3,1,4)              109.4697         calculate D2E/DX2 analytically  !
 ! A5    A(3,1,5)              109.4656         calculate D2E/DX2 analytically  !
 ! A6    A(4,1,5)              109.4591         calculate D2E/DX2 analytically  !
 ! D1    D(2,1,4,3)            119.9961         calculate D2E/DX2 analytically  !
 ! D2    D(2,1,5,3)           -119.9857         calculate D2E/DX2 analytically  !
 ! D3    D(2,1,5,4)            120.0269         calculate D2E/DX2 analytically  !
 ! D4    D(3,1,5,4)           -119.9873         calculate D2E/DX2 analytically  !
 --------------------------------------------------------------------------------
 Trust Radius=3.00D-01 FncErr=1.00D-07 GrdErr=1.00D-07
 Number of steps in this run=      2 maximum allowed number of steps=      2.
 GradGradGradGradGradGradGradGradGradGradGradGradGradGradGradGradGradGrad

                          Input orientation:                          
 ---------------------------------------------------------------------
 Center     Atomic      Atomic             Coordinates (Angstroms)
 Number     Number       Type             X           Y           Z
 ---------------------------------------------------------------------
      1          6           0        0.000034   -0.000052    0.000064
      2          1           0        0.906230   -0.595950    0.070693
      3          1           0        0.216500    0.927362   -0.523575
      4          1           0       -0.365099    0.224558    0.998769
      5          1           0       -0.757664   -0.555918   -0.545950
 ---------------------------------------------------------------------
                    Distance matrix (angstroms):
                    1          2          3          4          5
     1  C    0.000000
     2  H    1.086865   0.000000
     3  H    1.086808   1.774644   0.000000
     4  H    1.086823   1.775059   1.774746   0.000000
     5  H    1.086841   1.774935   1.774715   1.774657   0.000000
 Symmetry turned off by external request.
 Stoichiometry    CH4
 Framework group  C1[X(CH4)]
 Deg. of freedom     9
 Full point group                 C1      NOp   1
 Rotational constants (GHZ):    159.2304278    159.1853774    159.1773637
 Standard basis: 6-311+G(2df,2p) (5D, 7F)
 Integral buffers will be    131072 words long.
 Raffenetti 2 integral format.
 Two-electron integral symmetry is turned off.
    70 basis functions,    96 primitive gaussians,    75 cartesian basis functions
     5 alpha electrons        5 beta electrons
       nuclear repulsion energy        13.4745264411 Hartrees.
 NAtoms=    5 NActive=    5 NUniq=    5 SFac= 1.00D+00 NAtFMM=   50 NAOKFM=F Big=F
 One-electron integrals computed using PRISM.
 NBasis=    70 RedAO= T  NBF=    70
 NBsUse=    70 1.00D-06 NBFU=    70
 Initial guess read from the checkpoint file:  /scratch/bhoorasingh.p/Gau-12349.chk
 B after Tr=     0.000000    0.000000    0.000000
         Rot=    1.000000    0.000000    0.000000    0.000000 Ang=   0.00 deg.
 Requested convergence on RMS density matrix=1.00D-08 within 128 cycles.
 Requested convergence on MAX density matrix=1.00D-06.
 Requested convergence on             energy=1.00D-06.
 No special actions if energy rises.
 Keep R1 ints in memory in canonical form, NReq=6082495.
 SCF Done:  E(RM062X) =  -40.4997433918     A.U. after    1 cycles
             Convg  =    0.1539D-08             -V/T =  2.0050
 Range of M.O.s used for correlation:     1    70
 NBasis=    70 NAE=     5 NBE=     5 NFC=     0 NFV=     0
 NROrb=     70 NOA=     5 NOB=     5 NVA=    65 NVB=    65

 **** Warning!!: The largest alpha MO coefficient is  0.11912397D+02

 Symmetrizing basis deriv contribution to polar:
 IMax=3 JMax=2 DiffMx= 0.00D+00
 G2DrvN: will do     6 centers at a time, making    1 passes doing MaxLOS=3.
 Calling FoFCou, ICntrl=  3107 FMM=F I1Cent=   0 AccDes= 0.00D+00.
 FoFDir/FoFCou used for L=0 through L=3.
 End of G2Drv Frequency-dependent properties file   721 does not exist.
 End of G2Drv Frequency-dependent properties file   722 does not exist.
          IDoAtm=11111
          Differentiating once with respect to electric field.
                with respect to dipole field.
          Differentiating once with respect to nuclear coordinates.
          Keep R1 ints in memory in canonical form, NReq=6004471.
          There are    18 degrees of freedom in the 1st order CPHF.  IDoFFX=5.
     15 vectors produced by pass  0 Test12= 1.81D-15 5.56D-09 XBig12= 5.64D+00 1.07D+00.
 AX will form    15 AO Fock derivatives at one time.
     15 vectors produced by pass  1 Test12= 1.81D-15 5.56D-09 XBig12= 1.12D-01 1.18D-01.
     15 vectors produced by pass  2 Test12= 1.81D-15 5.56D-09 XBig12= 6.73D-04 9.46D-03.
     15 vectors produced by pass  3 Test12= 1.81D-15 5.56D-09 XBig12= 1.81D-06 3.07D-04.
     15 vectors produced by pass  4 Test12= 1.81D-15 5.56D-09 XBig12= 3.25D-09 1.68D-05.
     15 vectors produced by pass  5 Test12= 1.81D-15 5.56D-09 XBig12= 1.14D-11 9.20D-07.
      3 vectors produced by pass  6 Test12= 1.81D-15 5.56D-09 XBig12= 2.76D-14 4.84D-08.
 Inverted reduced A of dimension    93 with in-core refinement.
 Isotropic polarizability for W=    0.000000       15.05 Bohr**3.
 End of Minotr Frequency-dependent properties file   721 does not exist.
 End of Minotr Frequency-dependent properties file   722 does not exist.

 **********************************************************************

            Population analysis using the SCF density.

 **********************************************************************

 Alpha  occ. eigenvalues --  -10.51344  -0.78670  -0.45664  -0.45655  -0.45654
 Alpha virt. eigenvalues --    0.02210   0.06084   0.06085   0.06085   0.18210
 Alpha virt. eigenvalues --    0.18210   0.18213   0.22904   0.43009   0.43009
 Alpha virt. eigenvalues --    0.43011   0.54184   0.54190   0.55097   0.55097
 Alpha virt. eigenvalues --    0.55100   0.65109   0.72178   0.91128   0.91135
 Alpha virt. eigenvalues --    0.91137   1.08395   1.08399   1.08399   1.18660
 Alpha virt. eigenvalues --    1.18673   1.18674   1.41854   1.41863   1.43311
 Alpha virt. eigenvalues --    1.43315   1.43318   1.60380   2.33022   2.33033
 Alpha virt. eigenvalues --    2.33042   2.36546   2.99058   2.99070   2.99079
 Alpha virt. eigenvalues --    3.15530   3.15541   3.15558   3.26631   3.26651
 Alpha virt. eigenvalues --    3.34310   3.34323   3.34328   3.86271   3.86282
 Alpha virt. eigenvalues --    3.86284   3.93610   4.07935   4.07955   4.18636
 Alpha virt. eigenvalues --    4.18661   4.18693   4.41101   4.41110   4.41153
 Alpha virt. eigenvalues --    4.79294   5.58303   5.58350   5.58390  24.38597
          Condensed to atoms (all electrons):
              1          2          3          4          5
     1  C    4.814826   0.399790   0.399785   0.399809   0.399785
     2  H    0.399790   0.577542  -0.026961  -0.026916  -0.026916
     3  H    0.399785  -0.026961   0.577533  -0.026934  -0.026942
     4  H    0.399809  -0.026916  -0.026934   0.577489  -0.026967
     5  H    0.399785  -0.026916  -0.026942  -0.026967   0.577544
 Mulliken atomic charges:
              1
     1  C   -0.413996
     2  H    0.103461
     3  H    0.103520
     4  H    0.103520
     5  H    0.103496
 Sum of Mulliken atomic charges =   0.00000
 Mulliken charges with hydrogens summed into heavy atoms:
              1
     1  C    0.000000
 Sum of Mulliken charges with hydrogens summed into heavy atoms =   0.00000
 APT atomic charges:
              1
     1  C   -0.031128
     2  H    0.008048
     3  H    0.007740
     4  H    0.007594
     5  H    0.007747
 Sum of APT charges=   0.00000
 APT Atomic charges with hydrogens summed into heavy atoms:
              1
     1  C    0.000000
     2  H    0.000000
     3  H    0.000000
     4  H    0.000000
     5  H    0.000000
 Sum of APT charges=   0.00000
 Electronic spatial extent (au):  <R**2>=             35.6874
 Charge=              0.0000 electrons
 Dipole moment (field-independent basis, Debye):
    X=             -0.0001    Y=              0.0001    Z=              0.0000  Tot=              0.0001
 Quadrupole moment (field-independent basis, Debye-Ang):
   XX=             -8.4346   YY=             -8.4360   ZZ=             -8.4358
   XY=             -0.0001   XZ=             -0.0005   YZ=              0.0001
 Traceless Quadrupole moment (field-independent basis, Debye-Ang):
   XX=              0.0008   YY=             -0.0005   ZZ=             -0.0003
   XY=             -0.0001   XZ=             -0.0005   YZ=              0.0001
 Octapole moment (field-independent basis, Debye-Ang**2):
  XXX=              0.2088  YYY=              0.3296  ZZZ=              0.5324  XYY=              0.1972
  XXY=             -0.5679  XXZ=             -0.1137  XZZ=             -0.4070  YZZ=              0.2396
  YYZ=             -0.4203  XYZ=             -0.3518
 Hexadecapole moment (field-independent basis, Debye-Ang**3):
 XXXX=            -16.3845 YYYY=            -16.4606 ZZZZ=            -16.2079 XXXY=             -0.2628
 XXXZ=              0.3058 YYYX=              0.1385 YYYZ=             -0.4238 ZZZX=             -0.3507
 ZZZY=              0.2338 XXYY=             -5.2351 XXZZ=             -5.4874 YYZZ=             -5.4109
 XXYZ=              0.1898 YYXZ=              0.0450 ZZXY=              0.1244
 N-N= 1.347452644110D+01 E-N=-1.201926735226D+02  KE= 4.029635757718D+01
  Exact polarizability:  15.035   0.007  15.037  -0.001   0.025  15.072
 Approx polarizability:  16.079   0.000  16.077  -0.001   0.000  16.077
 Calling FoFJK, ICntrl=    100127 FMM=F ISym2X=0 I1Cent= 0 IOpClX= 0 NMat=1 NMatS=1 NMatT=0.
 Full mass-weighted force constant matrix:
 Low frequencies --- -120.3713  -80.8075   -0.0005    0.0002    0.0008   82.8670
 Low frequencies --- 1339.5475 1341.4589 1346.0547
 Harmonic frequencies (cm**-1), IR intensities (KM/Mole), Raman scattering
 activities (A**4/AMU), depolarization ratios for plane and unpolarized
 incident light, reduced masses (AMU), force constants (mDyne/A),
 and normal coordinates:
                     1                      2                      3
                     A                      A                      A
 Frequencies --  1339.5408              1341.4216              1346.0527
 Red. masses --     1.1792                 1.1792                 1.1792
 Frc consts  --     1.2466                 1.2501                 1.2588
 IR Inten    --    13.1545                13.2175                13.1952
  Atom  AN      X      Y      Z        X      Y      Z        X      Y      Z
     1   6    -0.06   0.09   0.07     0.10   0.07   0.00     0.04  -0.06   0.10
     2   1    -0.14  -0.14  -0.38    -0.28  -0.48   0.03     0.13   0.04  -0.48
     3   1     0.31  -0.28  -0.41    -0.39   0.05  -0.20    -0.31  -0.15  -0.25
     4   1     0.08  -0.29   0.18    -0.45  -0.38  -0.10    -0.35   0.35  -0.15
     5   1     0.43  -0.30  -0.23    -0.08  -0.05   0.32     0.00   0.42  -0.34
                     4                      5                      6
                     A                      A                      A
 Frequencies --  1563.9142              1568.8992              3051.5865
 Red. masses --     1.0078                 1.0079                 1.0078
 Frc consts  --     1.4523                 1.4616                 5.5296
 IR Inten    --     0.0005                 0.0016                 0.0036
  Atom  AN      X      Y      Z        X      Y      Z        X      Y      Z
     1   6     0.00   0.00   0.00     0.00   0.00   0.00     0.00   0.00   0.00
     2   1     0.27   0.42   0.06    -0.06  -0.04   0.49     0.42  -0.28   0.03
     3   1     0.32  -0.24  -0.30    -0.38  -0.10  -0.33     0.10   0.42  -0.24
     4   1    -0.23  -0.44   0.02     0.40  -0.21   0.19    -0.17   0.11   0.47
     5   1    -0.36   0.27   0.22     0.02   0.34  -0.37    -0.34  -0.25  -0.25
                     7                      8                      9
                     A                      A                      A
 Frequencies --  3164.2875              3165.6862              3168.0162
 Red. masses --     1.1014                 1.1014                 1.1016
 Frc consts  --     6.4975                 6.5032                 6.5140
 IR Inten    --    14.9393                14.5739                14.4375
  Atom  AN      X      Y      Z        X      Y      Z        X      Y      Z
     1   6    -0.05   0.00   0.08    -0.05   0.07  -0.04     0.05   0.07   0.04
     2   1     0.31  -0.21   0.04     0.64  -0.41   0.04    -0.08   0.07   0.00
     3   1     0.08   0.38  -0.20    -0.13  -0.51   0.29    -0.08  -0.38   0.23
     4   1     0.27  -0.17  -0.75    -0.02   0.02   0.02     0.10  -0.04  -0.24
     5   1    -0.03  -0.01   0.00     0.14   0.13   0.10    -0.59  -0.43  -0.42

 -------------------
 - Thermochemistry -
 -------------------
 Temperature   298.150 Kelvin.  Pressure   1.00000 Atm.
 Atom     1 has atomic number  6 and mass  12.00000
 Atom     2 has atomic number  1 and mass   1.00783
 Atom     3 has atomic number  1 and mass   1.00783
 Atom     4 has atomic number  1 and mass   1.00783
 Atom     5 has atomic number  1 and mass   1.00783
 Molecular mass:    16.03130 amu.
 Principal axes and moments of inertia in atomic units:
                           1         2         3
     Eigenvalues --    11.33415  11.33736  11.33793
           X            0.93569   0.32224  -0.14368
           Y           -0.11689   0.66736   0.73550
           Z           -0.33289   0.67141  -0.66211
 This molecule is an asymmetric top.
 Rotational symmetry number  1.
 Rotational temperatures (Kelvin)      7.64185     7.63968     7.63930
 Rotational constants (GHZ):         159.23043   159.18538   159.17736
 Zero-point vibrational energy     117888.4 (Joules/Mol)
                                   28.17601 (Kcal/Mol)
 Vibrational temperatures:   1927.30  1930.00  1936.67  2250.12  2257.29
          (Kelvin)           4390.55  4552.70  4554.71  4558.06
 
 Zero-point correction=                           0.044901 (Hartree/Particle)
 Thermal correction to Energy=                    0.047770
 Thermal correction to Enthalpy=                  0.048714
 Thermal correction to Gibbs Free Energy=         0.025248
 Sum of electronic and zero-point Energies=            -40.454842
 Sum of electronic and thermal Energies=               -40.451974
 Sum of electronic and thermal Enthalpies=             -40.451030
 Sum of electronic and thermal Free Energies=          -40.474495
 
                     E (Thermal)             CV                S
                      KCal/Mol        Cal/Mol-Kelvin    Cal/Mol-Kelvin
 Total                   29.976              6.466             49.388
 Electronic               0.000              0.000              0.000
 Translational            0.889              2.981             34.261
 Rotational               0.889              2.981             15.040
 Vibrational             28.198              0.505              0.086
                       Q            Log10(Q)             Ln(Q)
 Total Bot       0.243667D-11        -11.613203        -26.740388
 Total V=0       0.109630D+10          9.039930         20.815208
 Vib (Bot)       0.223525D-20        -20.650675        -47.549936
 Vib (V=0)       0.100568D+01          0.002458          0.005660
 Electronic      0.100000D+01          0.000000          0.000000
 Translational   0.252295D+07          6.401908         14.740939
 Rotational      0.432079D+03          2.635564          6.068609
 -------------------------------------------------------------------
 Center     Atomic                   Forces (Hartrees/Bohr)
 Number     Number              X              Y              Z
 -------------------------------------------------------------------
      1        6           0.000000059   -0.000000372    0.000000650
      2        1          -0.000000135   -0.000004565   -0.000040539
      3        1          -0.000013015    0.000010174    0.000011734
      4        1           0.000032331   -0.000018937    0.000015654
      5        1          -0.000019240    0.000013700    0.000012502
 -------------------------------------------------------------------
 Cartesian Forces:  Max     0.000040539 RMS     0.000017202

 GradGradGradGradGradGradGradGradGradGradGradGradGradGradGradGradGradGrad
 Berny optimization.
 Internal  Forces:  Max     0.000000436 RMS     0.000000173
 Search for a local minimum.
 Step number   1 out of a maximum of    2
 All quantities printed in internal units (Hartrees-Bohrs-Radians)
 Second derivative matrix not updated -- analytic derivatives used.
 The second derivative matrix:
                          R1        R2        R3        R4        A1
           R1           0.34899
           R2           0.00203   0.34936
           R3           0.00194   0.00213   0.34866
           R4           0.00202   0.00201   0.00189   0.34963
           A1           0.00191   0.00195  -0.00122  -0.00263   0.01950
           A2           0.00287  -0.00083   0.00330  -0.00552  -0.00871
           A3           0.00604  -0.00474  -0.00520   0.00384  -0.01284
           A4          -0.00081   0.00299   0.00323  -0.00558  -0.00860
           A5          -0.00479   0.00587  -0.00519   0.00411  -0.01305
           A6          -0.00522  -0.00524   0.00509   0.00578   0.02370
           D1           0.00360   0.00371   0.00250  -0.01002   0.01328
           D2          -0.00310  -0.00308   0.00786  -0.00165  -0.00803
           D3           0.00402  -0.00713   0.00397  -0.00086  -0.00402
           D4           0.00711  -0.00404  -0.00389   0.00078   0.00401
                          A2        A3        A4        A5        A6
           A2           0.03665
           A3          -0.02225   0.07150
           A4          -0.00216   0.02461   0.03663
           A5           0.02467  -0.03498  -0.02248   0.07226
           A6          -0.02820  -0.02605  -0.02801  -0.02640   0.08495
           D1           0.01046  -0.01428   0.01059  -0.01465  -0.00541
           D2           0.00919  -0.00663   0.00923  -0.00685   0.00309
           D3           0.01399   0.00058  -0.00473  -0.00739   0.00156
           D4           0.00480   0.00720  -0.01396  -0.00053  -0.00153
                          D1        D2        D3        D4
           D1           0.02917
           D2           0.00144   0.01809
           D3           0.00075   0.00909   0.01844
           D4          -0.00070  -0.00900   0.00935   0.01835
 ITU=  0
     Eigenvalues ---    0.03713   0.04189   0.06356   0.12930   0.13075
     Eigenvalues ---    0.34768   0.34802   0.34868   0.35519
 Angle between quadratic step and forces=  21.40 degrees.
 Linear search not attempted -- first point.
 Iteration  1 RMS(Cart)=  0.00000037 RMS(Int)=  0.00000000
 Variable       Old X    -DE/DX   Delta X   Delta X   Delta X     New X
                                 (Linear)    (Quad)   (Total)
    R1        2.05388   0.00000   0.00000   0.00000   0.00000   2.05388
    R2        2.05377   0.00000   0.00000   0.00000   0.00000   2.05377
    R3        2.05380   0.00000   0.00000   0.00000   0.00000   2.05380
    R4        2.05383   0.00000   0.00000   0.00000   0.00000   2.05383
    A1        1.91039   0.00000   0.00000   0.00000   0.00000   1.91039
    A2        1.91103   0.00000   0.00000   0.00000   0.00000   1.91103
    A3        1.91081   0.00000   0.00000   0.00000   0.00000   1.91081
    A4        1.91061   0.00000   0.00000   0.00000   0.00000   1.91061
    A5        1.91053   0.00000   0.00000   0.00000   0.00000   1.91053
    A6        1.91042   0.00000   0.00000   0.00000   0.00000   1.91042
    D1        2.09433   0.00000   0.00000   0.00000   0.00000   2.09433
    D2       -2.09415   0.00000   0.00000   0.00000   0.00000  -2.09415
    D3        2.09486   0.00000   0.00000   0.00000   0.00000   2.09487
    D4       -2.09417   0.00000   0.00000   0.00000   0.00000  -2.09417
         Item               Value     Threshold  Converged?
 Maximum Force            0.000000     0.000002     YES
 RMS     Force            0.000000     0.000001     YES
 Maximum Displacement     0.000001     0.000006     YES
 RMS     Displacement     0.000000     0.000004     YES
 Predicted change in Energy=-6.144352D-13
 Optimization completed.
    -- Stationary point found.
                           ----------------------------
                           !   Optimized Parameters   !
                           ! (Angstroms and Degrees)  !
 --------------------------                            --------------------------
 ! Name  Definition              Value          Derivative Info.                !
 --------------------------------------------------------------------------------
 ! R1    R(1,2)                  1.0869         -DE/DX =    0.0                 !
 ! R2    R(1,3)                  1.0868         -DE/DX =    0.0                 !
 ! R3    R(1,4)                  1.0868         -DE/DX =    0.0                 !
 ! R4    R(1,5)                  1.0868         -DE/DX =    0.0                 !
 ! A1    A(2,1,3)              109.4573         -DE/DX =    0.0                 !
 ! A2    A(2,1,4)              109.4941         -DE/DX =    0.0                 !
 ! A3    A(2,1,5)              109.4814         -DE/DX =    0.0                 !
 ! A4    A(3,1,4)              109.4697         -DE/DX =    0.0                 !
 ! A5    A(3,1,5)              109.4656         -DE/DX =    0.0                 !
 ! A6    A(4,1,5)              109.4591         -DE/DX =    0.0                 !
 ! D1    D(2,1,4,3)            119.9961         -DE/DX =    0.0                 !
 ! D2    D(2,1,5,3)           -119.9857         -DE/DX =    0.0                 !
 ! D3    D(2,1,5,4)            120.0269         -DE/DX =    0.0                 !
 ! D4    D(3,1,5,4)           -119.9873         -DE/DX =    0.0                 !
 --------------------------------------------------------------------------------
 GradGradGradGradGradGradGradGradGradGradGradGradGradGradGradGradGradGrad


 Test job not archived.
 1\1\GINC-COMPUTE-3-047\Freq\RM062X\6-311+G(2df,2p)\C1H4\BHOORASINGH.P\
 30-Apr-2015\0\\#N Geom=AllCheck Guess=TCheck SCRF=Check Test GenChk RM
 062X/6-311+G(2df,2p) Freq\\InChI=1S/CH4/h1H4/mult1\\0,1\C,0.0000335282
 ,-0.0000518146,0.0000636844\H,0.9062299223,-0.595949726,0.0706930183\H
 ,0.2164998477,0.9273615025,-0.5235753455\H,-0.3650992013,0.2245580019,
 0.9987688082\H,-0.7576640969,-0.5559179637,-0.5459501654\\Version=EM64
 L-G09RevB.01\HF=-40.4997434\RMSD=1.539e-09\RMSF=1.720e-05\ZeroPoint=0.
 0449013\Thermal=0.0477696\Dipole=-0.0000301,0.0000341,-0.0000105\Dipol
 eDeriv=-0.0306103,0.0006562,-0.0008261,0.0005996,-0.0323161,-0.0014848
 ,-0.0007282,-0.0009854,-0.0304566,-0.0576731,0.0809928,-0.0102596,0.08
 18358,0.0148012,0.0063053,-0.009638,0.0065823,0.0670157,0.0606191,-0.0
 306246,0.017817,-0.0309269,-0.0624117,0.0747975,0.0179129,0.0733512,0.
 0250111,0.0472046,0.0120243,0.0551975,0.0120905,0.0594091,-0.034539,0.
 0557911,-0.0330005,-0.0838328,-0.0195403,-0.0630486,-0.0619287,-0.0635
 991,0.0205174,-0.0450789,-0.0633379,-0.0459476,0.0222627\Polar=15.0353
 614,0.0074794,15.0371093,-0.0010959,0.0251545,15.0715804\PG=C01 [X(C1H
 4)]\NImag=0\\0.55205862,0.00036395,0.55225011,0.00102027,0.00009627,0.
 55257873,-0.23860899,0.12681625,-0.01492115,0.25642904,0.12690666,-0.1
 2855272,0.01018645,-0.13896817,0.13605302,-0.01498607,0.01013587,-0.04
 656265,0.01649742,-0.01112226,0.04611309,-0.05664944,-0.04740449,0.026
 11676,0.00744170,0.02366165,-0.01434572,0.05710484,-0.04752948,-0.2478
 2863,0.11410327,-0.00474555,-0.01388509,0.00736068,0.05195264,0.266619
 18,0.02613730,0.11416307,-0.11012246,0.00006715,0.00003697,-0.00184069
 ,-0.02872794,-0.12514981,0.11572716,-0.07660011,0.01957234,0.08533505,
 -0.00809831,0.00365517,0.02571601,-0.00349695,0.00177317,0.00472902,0.
 07885975,0.01960515,-0.05720292,-0.05296185,0.00416093,-0.00426770,-0.
 01704854,-0.00965821,0.00800306,0.02658760,-0.02141261,0.05763208,0.08
 526967,-0.05305695,-0.27963591,-0.00156882,0.00090902,0.00416654,0.004
 07337,-0.00401776,-0.01282798,-0.09358596,0.05792719,0.30143126,-0.180
 20008,-0.09934806,-0.09755092,-0.01716344,-0.01525531,-0.01288164,-0.0
 0440015,-0.00145078,-0.00220552,0.00933562,0.00730475,0.00581175,0.192
 42805,-0.09934627,-0.11866584,-0.07142414,0.01273653,0.01065248,0.0106
 7425,-0.01855159,-0.01290853,-0.01563784,-0.00358807,-0.00416453,-0.00
 176151,0.10874941,0.12508641,-0.09744116,-0.07133826,-0.11625770,-0.00
 007460,-0.00001020,-0.00187628,0.01288354,0.00770361,0.00906397,-0.022
 19411,-0.01450440,-0.01313391,0.10682633,0.07814924,0.12220393\\-0.000
 00006,0.00000037,-0.00000065,0.00000014,0.00000457,0.00004054,0.000013
 01,-0.00001017,-0.00001173,-0.00003233,0.00001894,-0.00001565,0.000019
 24,-0.00001370,-0.00001250\\\@


 CURIOUSER AND CURIOUSER

                  -- ALICE, IN WONDERLAND
 Job cpu time:  0 days  0 hours  2 minutes 30.7 seconds.
 File lengths (MBytes):  RWF=     42 Int=      0 D2E=      0 Chk=      2 Scr=      1
 Normal termination of Gaussian 09 at Thu Apr 30 21:31:35 2015.
